
  ___ ___ ___ _ _ _  
 |   |   |_  | | | | 
 | | | | | . | | | | 
 |__ |  _|___|_____|  24.7.0b1
 |___|_|             

User:   ???@842c80df6fb1
Date:   Sun Dec 29 21:24:23 2024
Arch:   x86_64
Pid:    76730
CWD:    /root/Projects/deepchem/examples/tutorials
Python: 3.11.11
gpaw:   /opt/conda/lib/python3.11/site-packages/gpaw
_gpaw:  /opt/conda/lib/python3.11/site-packages/
        _gpaw.cpython-311-x86_64-linux-gnu.so
ase:    /opt/conda/lib/python3.11/site-packages/ase (version 3.24.0)
numpy:  /opt/conda/lib/python3.11/site-packages/numpy (version 1.26.4)
scipy:  /opt/conda/lib/python3.11/site-packages/scipy (version 1.14.1)
libxc:  7.0.0
units:  Angstrom and eV
cores: 1
OpenMP: False
OMP_NUM_THREADS: 1

Input parameters:
  kpts: [1 1 1]
  mode: {ecut: 300.0,
         name: pw}
  xc: PBE

System changes: positions, numbers, cell, pbc, initial_charges, initial_magmoms 

Initialize ...

species:
  Si:
    name: Silicon
    id: ee77bee481871cc2cb65ac61239ccafa
    Z: 14.0
    valence: 4
    core: 10
    charge: 0.0
    file: /root/gpaw-setups-24.11.0/Si.PBE.gz
    compensation charges: {type: gauss,
                           rc: 0.33,
                           lmax: 2}
    cutoffs: {filter: 1.86,
              core: 2.06}
    projectors:
      #              energy  rcut
      - 3s(2.00)   -10.812   1.058
      - 3p(2.00)    -4.081   1.058
      -  s          16.399   1.058
      -  p          23.130   1.058
      -  d           0.000   1.058
  
    # Using partial waves for Si as LCAO basis

  C:
    name: Carbon
    id: 4aa54d4b901d75f77cc0ea3eec22967b
    Z: 6.0
    valence: 4
    core: 2
    charge: 0.0
    file: /root/gpaw-setups-24.11.0/C.PBE.gz
    compensation charges: {type: gauss,
                           rc: 0.20,
                           lmax: 2}
    cutoffs: {filter: 1.14,
              core: 1.14}
    projectors:
      #              energy  rcut
      - 2s(2.00)   -13.751   0.635
      - 2p(2.00)    -5.284   0.635
      -  s          13.461   0.635
      -  p          21.927   0.635
      -  d           0.000   0.635
  
    # Using partial waves for C as LCAO basis

  F:
    name: Fluorine
    id: 9cd46ba2a61e170ad72278be75b55cc0
    Z: 9.0
    valence: 7
    core: 2
    charge: 0.0
    file: /root/gpaw-setups-24.11.0/F.PBE.gz
    compensation charges: {type: gauss,
                           rc: 0.20,
                           lmax: 2}
    cutoffs: {filter: 1.14,
              core: 0.74}
    projectors:
      #              energy  rcut
      - 2s(2.00)   -29.898   0.635
      - 2p(5.00)   -11.110   0.635
      -  s          -2.687   0.635
      -  p          16.102   0.635
      -  d           0.000   0.635
  
    # Using partial waves for F as LCAO basis

  O:
    name: Oxygen
    id: 32ecd46bf208036f09c70b0ec9a88b78
    Z: 8.0
    valence: 6
    core: 2
    charge: 0.0
    file: /root/gpaw-setups-24.11.0/O.PBE.gz
    compensation charges: {type: gauss,
                           rc: 0.21,
                           lmax: 2}
    cutoffs: {filter: 1.17,
              core: 0.83}
    projectors:
      #              energy  rcut
      - 2s(2.00)   -23.961   0.688
      - 2p(4.00)    -9.029   0.598
      -  s           3.251   0.688
      -  p          18.182   0.598
      -  d           0.000   0.619
  
    # Using partial waves for O as LCAO basis

  H:
    name: Hydrogen
    id: d65de229564ff8ea4db303e23b6d1ecf
    Z: 1.0
    valence: 1
    core: 0
    charge: 0.0
    file: /root/gpaw-setups-24.11.0/H.PBE.gz
    compensation charges: {type: gauss,
                           rc: 0.15,
                           lmax: 2}
    cutoffs: {filter: 0.85,
              core: 0.53}
    projectors:
      #              energy  rcut
      - 1s(1.00)    -6.494   0.476
      -  s          20.717   0.476
      -  p           0.000   0.476
  
    # Using partial waves for H as LCAO basis

Reference energy: -221007.130392  # eV

Spin-paired calculation

Convergence criteria:
 Maximum [total energy] change in last 3 cyles: 0.0005 eV / valence electron
 Maximum integral of absolute [dens]ity change: 0.0001 electrons / valence electron
 Maximum integral of absolute [eigenst]ate change: 4e-08 eV^2 / valence electron
 Maximum number of scf [iter]ations: 333
 (Square brackets indicate name in SCF output, whereas a 'c' in
 the SCF output indicates the quantity has converged.)

Symmetries present (total): 1

  ( 1  0  0)
  ( 0  1  0)
  ( 0  0  1)

1 k-point (Gamma)
1 k-point in the irreducible part of the Brillouin zone
       k-points in crystal coordinates                weights
   0:     0.00000000    0.00000000    0.00000000          1/1

Wave functions: Plane wave expansion
  Cutoff energy: 300.000 eV
  Number of coefficients: 127393 (reduced to 63697)
  Pulay-stress correction: 0.000000 eV/Ang^3 (de/decut=0.000000)
  Using Numpy's FFT
  ScaLapack parameters: grid=1x1, blocksize=None
  Wavefunction extrapolation:
    Improved wavefunction reuse through dual PAW basis 

Occupation numbers: # Zero width 

Eigensolver
   Davidson(niter=2) 

Densities:
  Coarse grid: 90*84*96 grid
  Fine grid: 180*168*192 grid
  Total Charge: 0.000000 

Density mixing:
  Method: separate
  Backend: pulay
  Linear mixing parameter: 0.05
  old densities: 5
  Damping of long wavelength oscillations: 50 

Hamiltonian:
  XC and Coulomb potentials evaluated on a 180*168*192 grid
  Using the PBE Exchange-Correlation functional
  External potential:
    NoExternalPotential
 

XC parameters: PBE with 2 nearest neighbor stencil

Memory estimate:
  Process memory now: 494.00 MiB
  Calculator: 1205.78 MiB
    Density: 471.29 MiB
      Arrays: 143.96 MiB
      Localized functions: 271.96 MiB
      Mixer: 55.37 MiB
    Hamiltonian: 102.37 MiB
      Arrays: 94.13 MiB
      XC: 0.00 MiB
      Poisson: 0.00 MiB
      vbar: 8.24 MiB
    Wavefunctions: 632.12 MiB
      Arrays psit_nG: 293.53 MiB
      Eigensolver: 305.35 MiB
      Projections: 2.70 MiB
      Projectors: 15.55 MiB
      PW-descriptor: 14.99 MiB

Total number of cores used: 1

Number of atoms: 100
Number of atomic orbitals: 352
Number of bands in calculation: 302
Number of valence electrons: 496
Bands to converge: occupied

... initialized

Initializing position-dependent things.

Density initialized from atomic densities
Creating initial wave functions:
  302 bands from LCAO basis set

              .------------------------------------------------------.  
             /|                                                      |  
            / |                                                      |  
           /  |                                                      |  
          /   |                                                      |  
         /    |                                                      |  
        /     |                                                      |  
       /      |                                                      |  
      /       |                                                      |  
     /        |                                                      |  
    /         |                                                      |  
   /          |                                                      |  
  /           |                                                      |  
 *            |               FFF  F F                               |  
 |            |              F CC  C              F                  |  
 |            |              F    H C H                              |  
 |            |              H   C  F        F    C                  |  
 |            |             H C  F      F   F C    F                 |  
 |            |              F     Si FO C                           |  
 |            |       F        Si O    O     CHH                     |  
 |            |         CF FO    O       SC F                        |  
 |            |      F        C Si  OHiC   F                         |  
 |            |        F    Si           O                           |  
 |            |     FC HCF   HO      OSH  H                          |  
 |            |   F   C           Si F  C                            |  
 |            |         H        F C      H                          |  
 |            |        F         H    CF                             |  
 |            |                H   F C  F                            |  
 |            .----------------------F-------------------------------.  
 |           /                      F                               /   
 |          /                    F     F                           /    
 |         /                                                      /     
 |        /                                                      /      
 |       /                                                      /       
 |      /                                                      /        
 |     /                                                      /         
 |    /                                                      /          
 |   /                                                      /           
 |  /                                                      /            
 | /                                                      /             
 |/                                                      /              
 *------------------------------------------------------*               

Positions:
   0 Si     8.650271    9.511205   10.627803    ( 0.0000,  0.0000,  0.0000)
   1 C      7.018879    8.819995    9.982501    ( 0.0000,  0.0000,  0.0000)
   2 C      6.289218    7.802938   10.881275    ( 0.0000,  0.0000,  0.0000)
   3 F      6.123973    8.323148   12.148146    ( 0.0000,  0.0000,  0.0000)
   4 F      5.024245    7.589975   10.348845    ( 0.0000,  0.0000,  0.0000)
   5 C      7.004096    6.443317   10.983127    ( 0.0000,  0.0000,  0.0000)
   6 F      7.285278    5.946270    9.725098    ( 0.0000,  0.0000,  0.0000)
   7 F      8.178095    6.551877   11.705240    ( 0.0000,  0.0000,  0.0000)
   8 F      6.184055    5.539645   11.635817    ( 0.0000,  0.0000,  0.0000)
   9 O      9.795939    8.234990   10.400527    ( 0.0000,  0.0000,  0.0000)
  10 Si    11.206664    8.667704    9.508429    ( 0.0000,  0.0000,  0.0000)
  11 C     11.375486    7.245077    8.288237    ( 0.0000,  0.0000,  0.0000)
  12 C     12.629755    7.327087    7.394491    ( 0.0000,  0.0000,  0.0000)
  13 F     12.454311    8.346368    6.470910    ( 0.0000,  0.0000,  0.0000)
  14 F     13.758011    7.597443    8.165656    ( 0.0000,  0.0000,  0.0000)
  15 C     12.862810    6.015632    6.628079    ( 0.0000,  0.0000,  0.0000)
  16 F     13.183554    5.000000    7.508750    ( 0.0000,  0.0000,  0.0000)
  17 F     11.728821    5.668090    5.907927    ( 0.0000,  0.0000,  0.0000)
  18 F     13.918913    6.187513    5.751506    ( 0.0000,  0.0000,  0.0000)
  19 O     11.029765   10.109352    8.561221    ( 0.0000,  0.0000,  0.0000)
  20 Si    12.029909   11.424338    9.095377    ( 0.0000,  0.0000,  0.0000)
  21 C     12.882559   12.098767    7.551502    ( 0.0000,  0.0000,  0.0000)
  22 C     12.077181   12.099669    6.238592    ( 0.0000,  0.0000,  0.0000)
  23 F     12.885185   12.643564    5.254670    ( 0.0000,  0.0000,  0.0000)
  24 F     11.790606   10.798248    5.871927    ( 0.0000,  0.0000,  0.0000)
  25 C     10.775189   12.912661    6.289218    ( 0.0000,  0.0000,  0.0000)
  26 F      9.800265   12.187313    6.940064    ( 0.0000,  0.0000,  0.0000)
  27 F     10.335784   13.170612    5.000000    ( 0.0000,  0.0000,  0.0000)
  28 F     10.963700   14.123224    6.937468    ( 0.0000,  0.0000,  0.0000)
  29 O     11.132152   12.775761    9.715962    ( 0.0000,  0.0000,  0.0000)
  30 Si     9.506957   12.417482   10.231345    ( 0.0000,  0.0000,  0.0000)
  31 O      8.873194   10.911465    9.607722    ( 0.0000,  0.0000,  0.0000)
  32 O      9.301137   12.792250   11.913031    ( 0.0000,  0.0000,  0.0000)
  33 Si    10.737636   12.367306   12.762410    ( 0.0000,  0.0000,  0.0000)
  34 C     10.774502   13.006303   14.532511    ( 0.0000,  0.0000,  0.0000)
  35 C     10.195461   14.428125   14.702536    ( 0.0000,  0.0000,  0.0000)
  36 F     10.851966   15.048739   15.752122    ( 0.0000,  0.0000,  0.0000)
  37 F     10.413047   15.188872   13.565341    ( 0.0000,  0.0000,  0.0000)
  38 C      8.694609   14.416085   15.034752    ( 0.0000,  0.0000,  0.0000)
  39 F      8.222466   15.714927   15.149041    ( 0.0000,  0.0000,  0.0000)
  40 F      7.980145   13.769977   14.043448    ( 0.0000,  0.0000,  0.0000)
  41 F      8.479435   13.760527   16.237310    ( 0.0000,  0.0000,  0.0000)
  42 O     10.848726   10.740921   12.561273    ( 0.0000,  0.0000,  0.0000)
  43 Si     9.868978    9.564022   13.162397    ( 0.0000,  0.0000,  0.0000)
  44 O      8.379987    9.771625   12.308997    ( 0.0000,  0.0000,  0.0000)
  45 O     10.821685    8.144825   12.740655    ( 0.0000,  0.0000,  0.0000)
  46 Si    12.471457    8.585426   12.163016    ( 0.0000,  0.0000,  0.0000)
  47 O     12.659667    8.602736   10.439014    ( 0.0000,  0.0000,  0.0000)
  48 O     13.131516   10.092148   12.857448    ( 0.0000,  0.0000,  0.0000)
  49 Si    13.336497   11.470319   11.737973    ( 0.0000,  0.0000,  0.0000)
  50 O     13.393896   10.949894   10.078778    ( 0.0000,  0.0000,  0.0000)
  51 O     12.235622   12.849269   12.006900    ( 0.0000,  0.0000,  0.0000)
  52 C     15.052674   12.132065   12.104285    ( 0.0000,  0.0000,  0.0000)
  53 C     15.165928   12.759161   13.500475    ( 0.0000,  0.0000,  0.0000)
  54 F     14.809278   11.828306   14.458929    ( 0.0000,  0.0000,  0.0000)
  55 F     14.314131   13.851209   13.598832    ( 0.0000,  0.0000,  0.0000)
  56 C     16.595732   13.232733   13.779914    ( 0.0000,  0.0000,  0.0000)
  57 F     17.471935   12.156613   13.773537    ( 0.0000,  0.0000,  0.0000)
  58 F     17.001482   14.137395   12.820459    ( 0.0000,  0.0000,  0.0000)
  59 F     16.653895   13.843058   15.018445    ( 0.0000,  0.0000,  0.0000)
  60 C     13.583548    7.136613   12.656410    ( 0.0000,  0.0000,  0.0000)
  61 C     14.792452    7.454111   13.574396    ( 0.0000,  0.0000,  0.0000)
  62 F     15.430149    8.618410   13.151966    ( 0.0000,  0.0000,  0.0000)
  63 F     15.690666    6.408564   13.452980    ( 0.0000,  0.0000,  0.0000)
  64 C     14.408992    7.586788   15.058554    ( 0.0000,  0.0000,  0.0000)
  65 F     13.534692    6.572121   15.439381    ( 0.0000,  0.0000,  0.0000)
  66 F     13.827944    8.814153   15.292672    ( 0.0000,  0.0000,  0.0000)
  67 F     15.548410    7.488879   15.838686    ( 0.0000,  0.0000,  0.0000)
  68 C      9.480564    9.598169   15.003659    ( 0.0000,  0.0000,  0.0000)
  69 C     10.707672    9.407051   15.907758    ( 0.0000,  0.0000,  0.0000)
  70 F     11.715340   10.283980   15.540323    ( 0.0000,  0.0000,  0.0000)
  71 F     11.169207    8.108138   15.772065    ( 0.0000,  0.0000,  0.0000)
  72 C     10.351482    9.648393   17.376766    ( 0.0000,  0.0000,  0.0000)
  73 F      9.302052    8.826807   17.753561    ( 0.0000,  0.0000,  0.0000)
  74 F     11.450502    9.382502   18.176303    ( 0.0000,  0.0000,  0.0000)
  75 F      9.985870   10.969279   17.565086    ( 0.0000,  0.0000,  0.0000)
  76 C      8.452296   13.714941    9.352144    ( 0.0000,  0.0000,  0.0000)
  77 C      7.212420   14.212317   10.114094    ( 0.0000,  0.0000,  0.0000)
  78 F      6.613367   15.188764    9.338242    ( 0.0000,  0.0000,  0.0000)
  79 F      7.594712   14.801441   11.306674    ( 0.0000,  0.0000,  0.0000)
  80 C      6.168194   13.112221   10.385525    ( 0.0000,  0.0000,  0.0000)
  81 F      6.627352   12.228502   11.338470    ( 0.0000,  0.0000,  0.0000)
  82 F      5.875454   12.427936    9.220436    ( 0.0000,  0.0000,  0.0000)
  83 F      5.000000   13.690283   10.856355    ( 0.0000,  0.0000,  0.0000)
  84 H      7.197157    8.392921    8.984019    ( 0.0000,  0.0000,  0.0000)
  85 H      6.344284    9.690754    9.828206    ( 0.0000,  0.0000,  0.0000)
  86 H     10.461602    7.243237    7.660693    ( 0.0000,  0.0000,  0.0000)
  87 H     11.384324    6.313407    8.882909    ( 0.0000,  0.0000,  0.0000)
  88 H     13.797478   11.492201    7.391057    ( 0.0000,  0.0000,  0.0000)
  89 H     13.228891   13.129914    7.785890    ( 0.0000,  0.0000,  0.0000)
  90 H     10.247248   12.308204   15.204343    ( 0.0000,  0.0000,  0.0000)
  91 H     11.843062   13.007670   14.842741    ( 0.0000,  0.0000,  0.0000)
  92 H     15.769208   11.285371   11.999672    ( 0.0000,  0.0000,  0.0000)
  93 H     15.284904   12.881549   11.323824    ( 0.0000,  0.0000,  0.0000)
  94 H     13.994858    6.749403   11.695823    ( 0.0000,  0.0000,  0.0000)
  95 H     12.950511    6.310084   13.069916    ( 0.0000,  0.0000,  0.0000)
  96 H      8.940487   10.535853   15.233273    ( 0.0000,  0.0000,  0.0000)
  97 H      8.766650    8.759958   15.182389    ( 0.0000,  0.0000,  0.0000)
  98 H      8.138636   13.301548    8.370130    ( 0.0000,  0.0000,  0.0000)
  99 H      9.109905   14.583682    9.147523    ( 0.0000,  0.0000,  0.0000)

Unit cell:
           periodic     x           y           z      points  spacing
  1. axis:    no    22.471935    0.000000    0.000000    90     0.2497
  2. axis:    no     0.000000   20.714927    0.000000    84     0.2466
  3. axis:    no     0.000000    0.000000   23.176303    96     0.2414

  Lengths:  22.471935  20.714927  23.176303
  Angles:   90.000000  90.000000  90.000000

Effective grid spacing dv^(1/3) = 0.2459

     iter     time        total  log10-change:
                         energy   eigst   dens
iter:   1 21:25:46  -219.595631
iter:   2 21:26:45  -215.580657   -1.40  -0.89
iter:   3 21:27:40  -194.810985   -1.00  -0.92
iter:   4 21:28:34  -195.668216   -1.63  -1.21
iter:   5 21:29:29  -194.208471   -1.55  -1.32
iter:   6 21:30:25  -192.916561   -2.09  -1.65
iter:   7 21:31:24  -193.128306   -2.46  -2.16
iter:   8 21:32:22  -192.717232   -2.71  -2.05
iter:   9 21:33:19  -192.727720   -3.98  -2.64
iter:  10 21:34:18  -192.713065c  -4.11  -2.59
iter:  11 21:35:15  -192.721009c  -4.05  -2.99
iter:  12 21:36:13  -192.712164c  -4.50  -2.88
iter:  13 21:37:11  -192.712388c  -5.68  -3.31
iter:  14 21:38:09  -192.711767c  -5.54  -3.36
iter:  15 21:39:06  -192.711728c  -6.05  -3.52
iter:  16 21:40:04  -192.711769c  -6.68  -3.60
iter:  17 21:41:02  -192.711775c  -6.26  -3.69
iter:  18 21:42:00  -192.711769c  -6.78  -3.91
iter:  19 21:42:57  -192.711769c  -7.79c -4.17c

Converged after 19 iterations.

Dipole moment: (-0.086420, -0.324368, -0.223195) |e|*Ang

Energy contributions relative to reference atoms: (reference = -221007.130392)

Kinetic:       -1270.973109
Potential:     +1498.677641
External:        +0.000000
XC:            -434.098629
Entropy (-ST):   +0.000000
Local:          +13.682328
SIC:             +0.000000
--------------------------
Free energy:   -192.711769
Extrapolated:  -192.711769

 Band  Eigenvalues  Occupancy
    0    -33.87308    2.00000
    1    -33.82911    2.00000
    2    -33.74583    2.00000
    3    -33.68932    2.00000
    4    -33.66407    2.00000
    5    -33.57921    2.00000
    6    -33.53273    2.00000
    7    -33.47177    2.00000
    8    -32.98393    2.00000
    9    -32.72604    2.00000
   10    -32.57806    2.00000
   11    -32.56303    2.00000
   12    -32.55911    2.00000
   13    -32.52426    2.00000
   14    -32.46287    2.00000
   15    -32.45947    2.00000
   16    -32.16429    2.00000
   17    -32.14164    2.00000
   18    -32.06918    2.00000
   19    -31.96775    2.00000
   20    -31.93402    2.00000
   21    -31.93187    2.00000
   22    -31.86750    2.00000
   23    -31.83843    2.00000
   24    -31.78435    2.00000
   25    -31.76899    2.00000
   26    -31.73866    2.00000
   27    -31.73515    2.00000
   28    -31.72982    2.00000
   29    -31.72944    2.00000
   30    -31.68173    2.00000
   31    -31.62637    2.00000
   32    -31.55883    2.00000
   33    -31.47209    2.00000
   34    -31.36715    2.00000
   35    -31.36403    2.00000
   36    -31.28217    2.00000
   37    -31.27523    2.00000
   38    -31.23609    2.00000
   39    -31.19763    2.00000
   40    -27.52283    2.00000
   41    -26.74441    2.00000
   42    -26.45501    2.00000
   43    -26.31984    2.00000
   44    -25.99937    2.00000
   45    -25.94750    2.00000
   46    -25.81230    2.00000
   47    -25.75053    2.00000
   48    -25.71035    2.00000
   49    -25.36371    2.00000
   50    -25.30258    2.00000
   51    -25.01694    2.00000
   52    -20.71830    2.00000
   53    -20.41451    2.00000
   54    -20.25498    2.00000
   55    -20.23688    2.00000
   56    -20.22080    2.00000
   57    -20.18885    2.00000
   58    -20.13183    2.00000
   59    -20.07725    2.00000
   60    -18.51576    2.00000
   61    -18.28169    2.00000
   62    -18.19681    2.00000
   63    -18.13032    2.00000
   64    -18.07794    2.00000
   65    -18.07216    2.00000
   66    -18.04984    2.00000
   67    -17.98595    2.00000
   68    -16.57670    2.00000
   69    -16.34674    2.00000
   70    -16.29781    2.00000
   71    -16.25036    2.00000
   72    -16.19515    2.00000
   73    -16.16043    2.00000
   74    -16.15215    2.00000
   75    -16.09480    2.00000
   76    -15.07358    2.00000
   77    -15.01625    2.00000
   78    -14.91694    2.00000
   79    -14.85715    2.00000
   80    -14.82445    2.00000
   81    -14.78324    2.00000
   82    -14.78208    2.00000
   83    -14.76566    2.00000
   84    -14.75671    2.00000
   85    -14.71379    2.00000
   86    -14.68011    2.00000
   87    -14.67007    2.00000
   88    -14.65396    2.00000
   89    -14.64554    2.00000
   90    -14.63941    2.00000
   91    -14.62992    2.00000
   92    -14.59999    2.00000
   93    -14.58577    2.00000
   94    -14.53612    2.00000
   95    -14.51992    2.00000
   96    -14.46023    2.00000
   97    -14.42651    2.00000
   98    -14.41022    2.00000
   99    -14.37176    2.00000
  100    -14.31329    2.00000
  101    -14.07407    2.00000
  102    -13.98797    2.00000
  103    -13.93159    2.00000
  104    -13.87528    2.00000
  105    -13.72119    2.00000
  106    -13.65273    2.00000
  107    -13.61750    2.00000
  108    -13.59021    2.00000
  109    -13.53046    2.00000
  110    -13.49511    2.00000
  111    -13.46651    2.00000
  112    -13.37121    2.00000
  113    -13.30792    2.00000
  114    -13.24934    2.00000
  115    -12.88903    2.00000
  116    -12.69365    2.00000
  117    -12.47479    2.00000
  118    -12.45066    2.00000
  119    -12.38221    2.00000
  120    -12.32424    2.00000
  121    -12.27305    2.00000
  122    -12.21829    2.00000
  123    -11.97412    2.00000
  124    -11.82759    2.00000
  125    -11.73440    2.00000
  126    -11.68378    2.00000
  127    -11.45915    2.00000
  128    -11.39816    2.00000
  129    -11.37442    2.00000
  130    -11.28146    2.00000
  131    -11.24575    2.00000
  132    -11.21617    2.00000
  133    -11.18321    2.00000
  134    -11.13252    2.00000
  135    -11.12419    2.00000
  136    -11.07894    2.00000
  137    -11.06613    2.00000
  138    -11.03147    2.00000
  139    -11.02694    2.00000
  140    -11.00720    2.00000
  141    -10.99632    2.00000
  142    -10.97543    2.00000
  143    -10.96228    2.00000
  144    -10.94091    2.00000
  145    -10.90966    2.00000
  146    -10.90164    2.00000
  147    -10.89235    2.00000
  148    -10.87162    2.00000
  149    -10.85867    2.00000
  150    -10.83922    2.00000
  151    -10.82496    2.00000
  152    -10.80569    2.00000
  153    -10.77367    2.00000
  154    -10.75070    2.00000
  155    -10.70776    2.00000
  156    -10.69318    2.00000
  157    -10.63642    2.00000
  158    -10.60600    2.00000
  159    -10.56219    2.00000
  160    -10.53782    2.00000
  161    -10.52359    2.00000
  162    -10.49356    2.00000
  163    -10.42688    2.00000
  164    -10.38530    2.00000
  165    -10.36753    2.00000
  166    -10.35678    2.00000
  167    -10.33541    2.00000
  168    -10.32964    2.00000
  169    -10.27603    2.00000
  170    -10.26033    2.00000
  171    -10.23803    2.00000
  172    -10.22260    2.00000
  173    -10.20905    2.00000
  174    -10.14291    2.00000
  175    -10.13423    2.00000
  176    -10.05666    2.00000
  177    -10.02083    2.00000
  178    -10.00725    2.00000
  179     -9.97249    2.00000
  180     -9.94690    2.00000
  181     -9.92603    2.00000
  182     -9.89623    2.00000
  183     -9.87920    2.00000
  184     -9.87290    2.00000
  185     -9.85306    2.00000
  186     -9.83248    2.00000
  187     -9.81382    2.00000
  188     -9.78767    2.00000
  189     -9.78465    2.00000
  190     -9.74107    2.00000
  191     -9.73182    2.00000
  192     -9.69461    2.00000
  193     -9.67492    2.00000
  194     -9.61844    2.00000
  195     -9.61060    2.00000
  196     -9.59976    2.00000
  197     -9.58449    2.00000
  198     -9.57103    2.00000
  199     -9.54364    2.00000
  200     -9.52667    2.00000
  201     -9.50451    2.00000
  202     -9.48186    2.00000
  203     -9.47286    2.00000
  204     -9.46091    2.00000
  205     -9.44008    2.00000
  206     -9.42492    2.00000
  207     -9.41939    2.00000
  208     -9.39185    2.00000
  209     -9.38151    2.00000
  210     -9.32879    2.00000
  211     -9.29928    2.00000
  212     -9.28698    2.00000
  213     -9.27294    2.00000
  214     -9.24801    2.00000
  215     -9.22468    2.00000
  216     -9.20400    2.00000
  217     -9.13742    2.00000
  218     -9.11891    2.00000
  219     -9.08411    2.00000
  220     -9.04495    2.00000
  221     -8.82103    2.00000
  222     -8.78139    2.00000
  223     -8.70445    2.00000
  224     -8.68158    2.00000
  225     -8.59723    2.00000
  226     -8.54546    2.00000
  227     -8.47032    2.00000
  228     -8.42390    2.00000
  229     -8.40022    2.00000
  230     -8.36545    2.00000
  231     -8.34048    2.00000
  232     -8.30399    2.00000
  233     -8.27878    2.00000
  234     -8.23200    2.00000
  235     -8.20761    2.00000
  236     -8.10891    2.00000
  237     -8.09202    2.00000
  238     -8.02997    2.00000
  239     -7.98592    2.00000
  240     -7.85469    2.00000
  241     -7.66185    2.00000
  242     -7.57148    2.00000
  243     -7.31804    2.00000
  244     -7.20375    2.00000
  245     -7.18741    2.00000
  246     -7.08741    2.00000
  247     -6.81720    2.00000
  248     -2.07164    0.00000
  249     -1.06230    0.00000
  250     -0.92835    0.00000
  251     -0.84907    0.00000
  252     -0.54011    0.00000
  253     -0.45363    0.00000
  254     -0.37554    0.00000
  255     -0.33794    0.00000
  256     -0.25041    0.00000
  257     -0.17507    0.00000
  258     -0.13460    0.00000
  259     -0.03468    0.00000
  260     -0.02926    0.00000
  261      0.04028    0.00000
  262      0.09344    0.00000
  263      0.11194    0.00000
  264      0.12114    0.00000
  265      0.13416    0.00000
  266      0.19448    0.00000
  267      0.21083    0.00000
  268      0.23025    0.00000
  269      0.24505    0.00000
  270      0.31324    0.00000
  271      0.36285    0.00000
  272      0.37428    0.00000
  273      0.39096    0.00000
  274      0.41103    0.00000
  275      0.44386    0.00000
  276      0.44921    0.00000
  277      0.49540    0.00000
  278      0.51197    0.00000
  279      0.55585    0.00000
  280      0.56454    0.00000
  281      0.61125    0.00000
  282      0.65769    0.00000
  283      0.70480    0.00000
  284      0.72804    0.00000
  285      0.74842    0.00000
  286      0.84007    0.00000
  287      0.85944    0.00000
  288      0.88906    0.00000
  289      0.93404    0.00000
  290      0.96072    0.00000
  291      0.99423    0.00000
  292      1.04731    0.00000
  293      1.08732    0.00000
  294      1.15088    0.00000
  295      1.18789    0.00000
  296      1.23437    0.00000
  297      1.33762    0.00000
  298      1.41271    0.00000
  299      1.46389    0.00000
  300      1.55061    0.00000
  301      1.75817    0.00000

Fermi level: -4.44442

Gap: 4.746 eV
Transition (v -> c):
  (s=0, k=0, n=247, [0.00, 0.00, 0.00]) -> (s=0, k=0, n=248, [0.00, 0.00, 0.00])
No difference between direct/indirect transitions
