
  ___ ___ ___ _ _ _  
 |   |   |_  | | | | 
 | | | | | . | | | | 
 |__ |  _|___|_____|  24.7.0b1
 |___|_|             

User:   ???@842c80df6fb1
Date:   Sun Dec 29 20:45:29 2024
Arch:   x86_64
Pid:    69211
CWD:    /root/Projects/deepchem/examples/tutorials
Python: 3.12.2
gpaw:   /opt/conda/lib/python3.12/site-packages/gpaw
_gpaw:  /opt/conda/lib/python3.12/site-packages/
        _gpaw.cpython-312-x86_64-linux-gnu.so
ase:    /opt/conda/lib/python3.12/site-packages/ase (version 3.24.0)
numpy:  /opt/conda/lib/python3.12/site-packages/numpy (version 2.2.1)
scipy:  /opt/conda/lib/python3.12/site-packages/scipy (version 1.14.1)
libxc:  7.0.0
units:  Angstrom and eV
cores: 1
OpenMP: False
OMP_NUM_THREADS: 1

Input parameters:
  kpts: [1 1 1]
  mode: {ecut: 300.0,
         name: pw}
  xc: PBE

System changes: positions, numbers, cell, pbc, initial_charges, initial_magmoms 

Initialize ...

species:
  C:
    name: Carbon
    id: 4aa54d4b901d75f77cc0ea3eec22967b
    Z: 6.0
    valence: 4
    core: 2
    charge: 0.0
    file: /root/gpaw-setups-24.11.0/C.PBE.gz
    compensation charges: {type: gauss,
                           rc: 0.20,
                           lmax: 2}
    cutoffs: {filter: 1.14,
              core: 1.14}
    projectors:
      #              energy  rcut
      - 2s(2.00)   -13.751   0.635
      - 2p(2.00)    -5.284   0.635
      -  s          13.461   0.635
      -  p          21.927   0.635
      -  d           0.000   0.635
  
    # Using partial waves for C as LCAO basis

  O:
    name: Oxygen
    id: 32ecd46bf208036f09c70b0ec9a88b78
    Z: 8.0
    valence: 6
    core: 2
    charge: 0.0
    file: /root/gpaw-setups-24.11.0/O.PBE.gz
    compensation charges: {type: gauss,
                           rc: 0.21,
                           lmax: 2}
    cutoffs: {filter: 1.17,
              core: 0.83}
    projectors:
      #              energy  rcut
      - 2s(2.00)   -23.961   0.688
      - 2p(4.00)    -9.029   0.598
      -  s           3.251   0.688
      -  p          18.182   0.598
      -  d           0.000   0.619
  
    # Using partial waves for O as LCAO basis

  H:
    name: Hydrogen
    id: d65de229564ff8ea4db303e23b6d1ecf
    Z: 1.0
    valence: 1
    core: 0
    charge: 0.0
    file: /root/gpaw-setups-24.11.0/H.PBE.gz
    compensation charges: {type: gauss,
                           rc: 0.15,
                           lmax: 2}
    cutoffs: {filter: 0.85,
              core: 0.53}
    projectors:
      #              energy  rcut
      - 1s(1.00)    -6.494   0.476
      -  s          20.717   0.476
      -  p           0.000   0.476
  
    # Using partial waves for H as LCAO basis

Reference energy: -4171.049506  # eV

Spin-paired calculation

Convergence criteria:
 Maximum [total energy] change in last 3 cyles: 0.0005 eV / valence electron
 Maximum integral of absolute [dens]ity change: 0.0001 electrons / valence electron
 Maximum integral of absolute [eigenst]ate change: 4e-08 eV^2 / valence electron
 Maximum number of scf [iter]ations: 333
 (Square brackets indicate name in SCF output, whereas a 'c' in
 the SCF output indicates the quantity has converged.)

Symmetries present (total): 1

  ( 1  0  0)
  ( 0  1  0)
  ( 0  0  1)

1 k-point (Gamma)
1 k-point in the irreducible part of the Brillouin zone
       k-points in crystal coordinates                weights
   0:     0.00000000    0.00000000    0.00000000          1/1

Wave functions: Plane wave expansion
  Cutoff energy: 300.000 eV
  Number of coefficients: 24865 (reduced to 12433)
  Pulay-stress correction: 0.000000 eV/Ang^3 (de/decut=0.000000)
  Using Numpy's FFT
  ScaLapack parameters: grid=1x1, blocksize=None
  Wavefunction extrapolation:
    Improved wavefunction reuse through dual PAW basis 

Occupation numbers: # Zero width 

Eigensolver
   Davidson(niter=2) 

Densities:
  Coarse grid: 54*54*50 grid
  Fine grid: 108*108*100 grid
  Total Charge: 0.000000 

Density mixing:
  Method: separate
  Backend: pulay
  Linear mixing parameter: 0.05
  old densities: 5
  Damping of long wavelength oscillations: 50 

Hamiltonian:
  XC and Coulomb potentials evaluated on a 108*108*100 grid
  Using the PBE Exchange-Correlation functional
  External potential:
    NoExternalPotential
 

XC parameters: PBE with 2 nearest neighbor stencil

Memory estimate:
  Process memory now: 433.95 MiB
  Calculator: 111.96 MiB
    Density: 79.80 MiB
      Arrays: 28.92 MiB
      Localized functions: 39.76 MiB
      Mixer: 11.12 MiB
    Hamiltonian: 19.99 MiB
      Arrays: 18.91 MiB
      XC: 0.00 MiB
      Poisson: 0.00 MiB
      vbar: 1.07 MiB
    Wavefunctions: 12.17 MiB
      Arrays psit_nG: 3.04 MiB
      Eigensolver: 4.00 MiB
      Projections: 0.01 MiB
      Projectors: 2.09 MiB
      PW-descriptor: 3.04 MiB

Total number of cores used: 1

Number of atoms: 9
Number of atomic orbitals: 18
Number of bands in calculation: 16
Number of valence electrons: 20
Bands to converge: occupied

... initialized

Initializing position-dependent things.

Density initialized from atomic densities
Creating initial wave functions:
  16 bands from LCAO basis set

         .--------------------------------.  
        /|                                |  
       / |                                |  
      /  |                                |  
     /   |                                |  
    /    |                                |  
   /     |                                |  
  /      |                                |  
 *       |                                |  
 |       |                                |  
 |       |          H                     |  
 |       |          CH    H               |  
 |       |        O    H                  |  
 |       |       H      H                 |  
 |       |                                |  
 |       .--------------------------------.  
 |      /                                /   
 |     /                                /    
 |    /                                /     
 |   /                                /      
 |  /                                /       
 | /                                /        
 |/                                /         
 *--------------------------------*          

Positions:
   0 C      7.498514    6.084518    6.079819    ( 0.0000,  0.0000,  0.0000)
   1 C      6.116887    6.628023    6.422712    ( 0.0000,  0.0000,  0.0000)
   2 O      5.136481    5.989865    5.650866    ( 0.0000,  0.0000,  0.0000)
   3 H      7.550754    5.000000    6.313371    ( 0.0000,  0.0000,  0.0000)
   4 H      8.268863    6.617643    6.675895    ( 0.0000,  0.0000,  0.0000)
   5 H      7.709432    6.236329    5.000000    ( 0.0000,  0.0000,  0.0000)
   6 H      5.912062    6.488563    7.508460    ( 0.0000,  0.0000,  0.0000)
   7 H      6.090707    7.716522    6.204604    ( 0.0000,  0.0000,  0.0000)
   8 H      5.000000    5.091640    6.051416    ( 0.0000,  0.0000,  0.0000)

Unit cell:
           periodic     x           y           z      points  spacing
  1. axis:    no    13.268863    0.000000    0.000000    54     0.2457
  2. axis:    no     0.000000   12.716522    0.000000    54     0.2355
  3. axis:    no     0.000000    0.000000   12.508460    50     0.2502

  Lengths:  13.268863  12.716522  12.508460
  Angles:   90.000000  90.000000  90.000000

Effective grid spacing dv^(1/3) = 0.2437

     iter     time        total  log10-change:
                         energy   eigst   dens
iter:   1 20:45:30   -41.626685
iter:   2 20:45:30   -41.101110   -1.12  -0.65
iter:   3 20:45:31   -38.324865   -0.62  -0.68
iter:   4 20:45:31   -38.287651   -2.04  -1.03
iter:   5 20:45:32   -38.427430   -1.05  -1.06
iter:   6 20:45:33   -38.019152   -1.35  -1.25
iter:   7 20:45:33   -38.021326   -2.53  -2.03
iter:   8 20:45:34   -38.019009c  -2.76  -2.01
iter:   9 20:45:34   -38.016172c  -3.59  -2.28
iter:  10 20:45:35   -38.015918c  -3.85  -2.55
iter:  11 20:45:36   -38.017746c  -3.39  -2.67
iter:  12 20:45:36   -38.015886c  -3.51  -2.40
iter:  13 20:45:37   -38.015881c  -4.92  -3.14
iter:  14 20:45:38   -38.015852c  -5.69  -3.11
iter:  15 20:45:38   -38.015872c  -5.01  -3.19
iter:  16 20:45:39   -38.015859c  -6.32  -3.28
iter:  17 20:45:39   -38.015915c  -4.74  -3.35
iter:  18 20:45:40   -38.015855c  -5.05  -3.15
iter:  19 20:45:41   -38.015854c  -6.72  -3.57
iter:  20 20:45:41   -38.015854c  -5.87  -3.62
iter:  21 20:45:42   -38.015850c  -6.36  -3.72
iter:  22 20:45:42   -38.015850c  -6.84  -4.03c
iter:  23 20:45:43   -38.015850c  -6.97  -4.04c
iter:  24 20:45:44   -38.015850c  -7.69c -4.12c

Converged after 24 iterations.

Dipole moment: (0.133037, -0.123508, 0.234080) |e|*Ang

Energy contributions relative to reference atoms: (reference = -4171.049506)

Kinetic:         +9.204075
Potential:       -8.591328
External:        +0.000000
XC:             -38.691713
Entropy (-ST):   +0.000000
Local:           +0.063116
SIC:             +0.000000
--------------------------
Free energy:    -38.015850
Extrapolated:   -38.015850

 Band  Eigenvalues  Occupancy
    0    -26.61953    2.00000
    1    -18.37324    2.00000
    2    -15.08866    2.00000
    3    -12.38827    2.00000
    4    -10.98164    2.00000
    5    -10.08768    2.00000
    6     -9.07827    2.00000
    7     -8.73485    2.00000
    8     -7.50260    2.00000
    9     -5.95935    2.00000
   10     -0.69331    0.00000
   11     -0.02556    0.00000
   12      0.30609    0.00000
   13      0.35806    0.00000
   14      0.50505    0.00000
   15      0.65134    0.00000

Fermi level: -3.32633

Gap: 5.266 eV
Transition (v -> c):
  (s=0, k=0, n=9, [0.00, 0.00, 0.00]) -> (s=0, k=0, n=10, [0.00, 0.00, 0.00])
No difference between direct/indirect transitions
Timing:                              incl.     excl.
-----------------------------------------------------------
Hamiltonian:                         0.352     0.006   0.0% |
 Atomic:                             0.063     0.001   0.0% |
  XC Correction:                     0.062     0.062   0.3% |
 Calculate atomic Hamiltonians:      0.096     0.096   0.5% |
 Communicate:                        0.000     0.000   0.0% |
 Initialize Hamiltonian:             0.001     0.001   0.0% |
 Poisson:                            0.003     0.003   0.0% |
 XC 3D grid:                         0.183     0.183   0.9% |
LCAO initialization:                 0.075     0.026   0.1% |
 LCAO eigensolver:                   0.006     0.000   0.0% |
  Calculate projections:             0.000     0.000   0.0% |
  DenseAtomicCorrection:             0.000     0.000   0.0% |
  Distribute overlap matrix:         0.000     0.000   0.0% |
  Orbital Layouts:                   0.001     0.001   0.0% |
  Potential matrix:                  0.005     0.005   0.0% |
 LCAO to grid:                       0.029     0.029   0.2% |
 Set positions (LCAO WFS):           0.014     0.002   0.0% |
  Basic WFS set positions:           0.000     0.000   0.0% |
  Basis functions set positions:     0.000     0.000   0.0% |
  P tci:                             0.007     0.007   0.0% |
  ST tci:                            0.002     0.002   0.0% |
  mktci:                             0.003     0.003   0.0% |
PWDescriptor:                        0.008     0.008   0.0% |
SCF-cycle:                          14.279     0.007   0.0% |
 Davidson:                           3.810     0.537   2.8% ||
  Apply H:                           0.759     0.748   3.9% |-|
   HMM T:                            0.011     0.011   0.1% |
  Subspace diag:                     0.828     0.002   0.0% |
   calc_h_matrix:                    0.792     0.025   0.1% |
    Apply H:                         0.767     0.755   3.9% |-|
     HMM T:                          0.012     0.012   0.1% |
   diagonalize:                      0.003     0.003   0.0% |
   rotate_psi:                       0.032     0.032   0.2% |
  calc. matrices:                    1.630     0.135   0.7% |
   Apply H:                          1.495     1.473   7.6% |--|
    HMM T:                           0.023     0.023   0.1% |
  diagonalize:                       0.009     0.009   0.0% |
  rotate_psi:                        0.047     0.047   0.2% |
 Density:                            3.366     0.000   0.0% |
  Atomic density matrices:           0.010     0.010   0.1% |
  Mix:                               2.931     2.931  15.2% |-----|
  Multipole moments:                 0.002     0.002   0.0% |
  Pseudo density:                    0.422     0.422   2.2% ||
   Symmetrize density:               0.000     0.000   0.0% |
 Hamiltonian:                        7.088     0.058   0.3% |
  Atomic:                            1.449     0.013   0.1% |
   XC Correction:                    1.436     1.436   7.4% |--|
  Calculate atomic Hamiltonians:     1.451     1.451   7.5% |--|
  Communicate:                       0.000     0.000   0.0% |
  Poisson:                           0.059     0.059   0.3% |
  XC 3D grid:                        4.072     4.072  21.1% |-------|
 Orthonormalize:                     0.007     0.000   0.0% |
  calc_s_matrix:                     0.001     0.001   0.0% |
  inverse-cholesky:                  0.000     0.000   0.0% |
  projections:                       0.005     0.005   0.0% |
  rotate_psi_s:                      0.001     0.001   0.0% |
Set symmetry:                        0.000     0.000   0.0% |
Other:                               4.614     4.614  23.9% |---------|
-----------------------------------------------------------
Total:                                        19.328 100.0%

Memory usage: 433.95 MiB
Date: Sun Dec 29 20:45:29 2024
