2
Lattice="4.0 0.0 0.0 0.0 4.0 0.0 0.0 0.0 4.737166" Properties=species:S:1:pos:R:3:magmoms:R:1 energy=-6.9694636727296935 free_energy=-6.9694636727296935 dipole="3.211699235867684e-16 4.840759634625767e-16 -2.4809435531480668e-15" magmom=0.0 pbc="F F F"
H        2.00000000       2.00000000       2.73716600       0.00000000
H        2.00000000       2.00000000       2.00000000       0.00000000
