3
Lattice="4.0 0.0 0.0 0.0 5.526478 0.0 0.0 0.0 4.596309" Properties=species:S:1:pos:R:3:magmoms:R:1 energy=-9.333697697415296 free_energy=-9.333697697415296 dipole="1.5895767495126258e-15 1.4229484150756934e-15 -0.37708711959033064" magmom=0.0 pbc="F F F"
O        2.00000000       2.76323900       2.59630900       0.00000000
H        2.00000000       3.52647800       2.00000000       0.00000000
H        2.00000000       2.00000000       2.00000000       0.00000000
