2
Lattice="4.0 0.0 0.0 0.0 4.0 0.0 0.0 0.0 5.245956" Properties=species:S:1:pos:R:3:initial_magmoms:R:1:magmoms:R:1 energy=-1.4116177171105477 free_energy=-1.4116177171105477 dipole="1.5439973692918892e-15 1.0685058956257945e-15 1.277668140503506e-15" magmom=1.999999999992957 pbc="F F F"
O        2.00000000       2.00000000       3.24595600       1.00000000       0.60565396
O        2.00000000       2.00000000       2.00000000       1.00000000       0.60565396
