3
Lattice="10.0 0.0 0.0 0.0 11.526478000000001 0.0 0.0 0.0 10.596309" Properties=species:S:1:pos:R:3:magmoms:R:1:forces:R:3 energy=-14.64939628480419 free_energy=-14.64939628480419 dipole="2.429083862223427e-15 7.769965113821026e-16 -0.37866308455690206" magmom=0.0 pbc="F F F"
O        5.00000000       5.76323900       5.59661643       0.00000000       0.00000000       0.00000000      -0.03736287
H        5.00000000       6.52801652       4.99926993       0.00000000      -0.00000000       0.01240597      -0.00139080
H        5.00000000       4.99846148       4.99926993       0.00000000       0.00000000      -0.01240597      -0.00139080
