
  ___ ___ ___ _ _ _  
 |   |   |_  | | | | 
 | | | | | . | | | | 
 |__ |  _|___|_____|  24.7.0b1
 |___|_|             

User:   gigavolt@ideapad-gaming
Date:   Fri Dec 27 22:44:25 2024
Arch:   x86_64
Pid:    6135
CWD:    /home/gigavolt/Projects/deepchem/examples/tutorials
Python: 3.13.1
gpaw:   /home/gigavolt/miniconda3/envs/dc-gpaw/lib/python3.13/site-packages/gpaw
_gpaw:  /home/gigavolt/miniconda3/envs/dc-gpaw/lib/python3.13/site-packages/
        _gpaw.cpython-313-x86_64-linux-gnu.so
ase:    /home/gigavolt/miniconda3/envs/dc-gpaw/lib/python3.13/site-packages/ase (version 3.23.0)
numpy:  /home/gigavolt/.local/lib/python3.13/site-packages/numpy (version 2.2.1)
scipy:  /home/gigavolt/miniconda3/envs/dc-gpaw/lib/python3.13/site-packages/scipy (version 1.14.1)
libxc:  7.0.0
units:  Angstrom and eV
cores: 1
OpenMP: False
OMP_NUM_THREADS: 1

Input parameters:
  mode: pw
  xc: PBE

System changes: positions, numbers, cell, pbc, initial_charges, initial_magmoms 

Initialize ...

Memory usage: 1.78 GiB
Date: Fri Dec 27 23:11:18 2024
f09c70b0ec9a88b78
    Z: 8.0
    valence: 6
    core: 2
    charge: 0.0
    file: /home/gigavolt/Projects/gpaw-setups-24.11.0/O.PBE.gz
    compensation charges: {type: gauss,
                           rc: 0.21,
                           lmax: 2}
    cutoffs: {filter: 1.17,
              core: 0.83}
    projectors:
      #              energy  rcut
      - 2s(2.00)   -23.961   0.688
      - 2p(4.00)    -9.029   0.598
      -  s           3.251   0.688
      -  p          18.182   0.598
      -  d           0.000   0.619
  
    # Using partial waves for O as LCAO basis

  H:
    name: Hydrogen
    id: d65de229564ff8ea4db303e23b6d1ecf
    Z: 1.0
    valence: 1
    core: 0
    charge: 0.0
    file: /home/gigavolt/Projects/gpaw-setups-24.11.0/H.PBE.gz
    compensation charges: {type: gauss,
                           rc: 0.15,
                           lmax: 2}
    cutoffs: {filter: 0.85,
              core: 0.53}
    projectors:
      #              energy  rcut
      - 1s(1.00)    -6.494   0.476
      -  s          20.717   0.476
      -  p           0.000   0.476
  
    # Using partial waves for H as LCAO basis

Reference energy: -2065.832626  # eV

Spin-paired calculation

Convergence criteria:
 Maximum [total energy] change in last 3 cyles: 0.0005 eV / valence electron
 Maximum integral of absolute [dens]ity change: 0.0001 electrons / valence electron
 Maximum integral of absolute [eigenst]ate change: 4e-08 eV^2 / valence electron
 Maximum number of scf [iter]ations: 333
 (Square brackets indicate name in SCF output, whereas a 'c' in
 the SCF output indicates the quantity has converged.)

Symmetries present (total): 4

  ( 1  0  0)  ( 1  0  0)  (-1  0  0)  (-1  0  0)
  ( 0  1  0)  ( 0 -1  0)  ( 0  1  0)  ( 0 -1  0)
  ( 0  0  1)  ( 0  0  1)  ( 0  0  1)  ( 0  0  1)

1 k-point (Gamma)
1 k-point in the irreducible part of the Brillouin zone
       k-points in crystal coordinates                weights
   0:     0.00000000    0.00000000    0.00000000          1/1

Wave functions: Plane wave expansion
  Cutoff energy: 340.000 eV
  Number of coefficients: 1425 (reduced to 713)
  Pulay-stress correction: 0.000000 eV/Ang^3 (de/decut=0.000000)
  Using Numpy's FFT
  ScaLapack parameters: grid=1x1, blocksize=None
  Wavefunction extrapolation:
    Improved wavefunction reuse through dual PAW basis 

Occupation numbers: # Zero width 

Eigensolver
   Davidson(niter=2) 

Densities:
  Coarse grid: 18*24*20 grid
  Fine grid: 36*48*40 grid
  Total Charge: 0.000000 

Density mixing:
  Method: separate
  Backend: pulay
  Linear mixing parameter: 0.05
  old densities: 5
  Damping of long wavelength oscillations: 50 

Hamiltonian:
  XC and Coulomb potentials evaluated on a 36*48*40 grid
  Using the PBE Exchange-Correlation functional
  External potential:
    NoExternalPotential
 

XC parameters: PBE with 2 nearest neighbor stencil

Memory estimate:
  Process memory now: 1825.64 MiB
  Calculator: 5.93 MiB
    Density: 4.29 MiB
      Arrays: 1.71 MiB
      Localized functions: 1.92 MiB
      Mixer: 0.66 MiB
    Hamiltonian: 1.17 MiB
      Arrays: 1.12 MiB
      XC: 0.00 MiB
      Poisson: 0.00 MiB
      vbar: 0.05 MiB
    Wavefunctions: 0.47 MiB
      Arrays psit_nG: 0.07 MiB
      Eigensolver: 0.12 MiB
      Projections: 0.00 MiB
      Projectors: 0.09 MiB
      PW-descriptor: 0.19 MiB

Total number of cores used: 1

Number of atoms: 3
Number of atomic orbitals: 6
Number of bands in calculation: 6
Number of valence electrons: 8
Bands to converge: occupied

... initialized

Initializing position-dependent things.

Density initialized from atomic densities
Creating initial wave functions:
  6 bands from LCAO basis set

    .---------.  
   /|         |  
  / |         |  
 *  |         |  
 |  |   O     |  
 |  |  H      |  
 |  .---------.  
 | /         /   
 |/         /    
 *---------*     

Positions:
   0 O      2.000000    2.763239    2.596309    ( 0.0000,  0.0000,  0.0000)
   1 H      2.000000    3.526478    2.000000    ( 0.0000,  0.0000,  0.0000)
   2 H      2.000000    2.000000    2.000000    ( 0.0000,  0.0000,  0.0000)

Unit cell:
           periodic     x           y           z      points  spacing
  1. axis:    no     4.000000    0.000000    0.000000    18     0.2222
  2. axis:    no     0.000000    5.526478    0.000000    24     0.2303
  3. axis:    no     0.000000    0.000000    4.596309    20     0.2298

  Lengths:   4.000000   5.526478   4.596309
  Angles:   90.000000  90.000000  90.000000

Effective grid spacing dv^(1/3) = 0.2274

     iter     time        total  log10-change:
                         energy   eigst   dens
iter:   1 22:50:25   -10.597123
iter:   2 22:50:25   -10.369694   -1.24  -0.70
iter:   3 22:50:25    -9.495985   -0.88  -0.74
iter:   4 22:50:25    -9.442875   -1.23  -1.01
iter:   5 22:50:25    -9.355542   -1.56  -1.14
iter:   6 22:50:25    -9.335733   -1.82  -1.63
iter:   7 22:50:25    -9.337097   -2.93  -2.08
iter:   8 22:50:26    -9.333784c  -3.24  -1.99
iter:   9 22:50:26    -9.333770c  -4.62  -2.65
iter:  10 22:50:26    -9.333728c  -4.93  -2.78
iter:  11 22:50:26    -9.333697c  -5.13  -2.91
iter:  12 22:50:26    -9.333722c  -4.86  -3.11
iter:  13 22:50:26    -9.333698c  -5.37  -3.22
iter:  14 22:50:26    -9.333698c  -6.11  -3.92
iter:  15 22:50:26    -9.333698c  -7.81c -4.23c

Converged after 15 iterations.

Dipole moment: (0.000000, 0.000000, -0.377087) |e|*Ang

Energy contributions relative to reference atoms: (reference = -2065.832626)

Kinetic:         -2.930477
Potential:       +5.479959
External:        +0.000000
XC:             -11.730199
Entropy (-ST):   +0.000000
Local:           -0.152981
SIC:             +0.000000
--------------------------
Free energy:     -9.333698
Extrapolated:    -9.333698

 Band  Eigenvalues  Occupancy
    0    -24.45895    2.00000
    1    -11.61072    2.00000
    2     -7.86775    2.00000
    3     -5.35444    2.00000
    4     -1.20876    0.00000
    5      3.51231    0.00000

Fermi level: -3.28160

Gap: 4.146 eV
Transition (v -> c):
  (s=0, k=0, n=3, [[0.00, 0.00, 0.00]]) -> (s=0, k=0, n=4, [[0.00, 0.00, 0.00]])
No difference between direct/indirect transitions
System changes: cell, positions, numbers 

Initialize ...

species:
  H:
    name: Hydrogen
    id: d65de229564ff8ea4db303e23b6d1ecf
    Z: 1.0
    valence: 1
    core: 0
    charge: 0.0
    file: /home/gigavolt/Projects/gpaw-setups-24.11.0/H.PBE.gz
    compensation charges: {type: gauss,
                           rc: 0.15,
                           lmax: 2}
    cutoffs: {filter: 0.85,
              core: 0.53}
    projectors:
      #              energy  rcut
      - 1s(1.00)    -6.494   0.476
      -  s          20.717   0.476
      -  p           0.000   0.476
  
    # Using partial waves for H as LCAO basis

Reference energy: -24.980324  # eV

Spin-paired calculation

Convergence criteria:
 Maximum [total energy] change in last 3 cyles: 0.0005 eV / valence electron
 Maximum integral of absolute [dens]ity change: 0.0001 electrons / valence electron
 Maximum integral of absolute [eigenst]ate change: 4e-08 eV^2 / valence electron
 Maximum number of scf [iter]ations: 333
 (Square brackets indicate name in SCF output, whereas a 'c' in
 the SCF output indicates the quantity has converged.)

Symmetries present (total): 16

  ( 1  0  0)  ( 1  0  0)  ( 1  0  0)  ( 1  0  0)  ( 0  1  0)  ( 0  1  0)
  ( 0  1  0)  ( 0  1  0)  ( 0 -1  0)  ( 0 -1  0)  ( 1  0  0)  ( 1  0  0)
  ( 0  0  1)  ( 0  0 -1)  ( 0  0  1)  ( 0  0 -1)  ( 0  0  1)  ( 0  0 -1)

  ( 0  1  0)  ( 0  1  0)  ( 0 -1  0)  ( 0 -1  0)  ( 0 -1  0)  ( 0 -1  0)
  (-1  0  0)  (-1  0  0)  ( 1  0  0)  ( 1  0  0)  (-1  0  0)  (-1  0  0)
  ( 0  0  1)  ( 0  0 -1)  ( 0  0  1)  ( 0  0 -1)  ( 0  0  1)  ( 0  0 -1)

  (-1  0  0)  (-1  0  0)  (-1  0  0)  (-1  0  0)
  ( 0  1  0)  ( 0  1  0)  ( 0 -1  0)  ( 0 -1  0)
  ( 0  0  1)  ( 0  0 -1)  ( 0  0  1)  ( 0  0 -1)

1 k-point (Gamma)
1 k-point in the irreducible part of the Brillouin zone
       k-points in crystal coordinates                weights
   0:     0.00000000    0.00000000    0.00000000          1/1

Wave functions: Plane wave expansion
  Cutoff energy: 340.000 eV
  Number of coefficients: 1071 (reduced to 536)
  Pulay-stress correction: 0.000000 eV/Ang^3 (de/decut=0.000000)
  Using Numpy's FFT
  ScaLapack parameters: grid=1x1, blocksize=None
  Wavefunction extrapolation:
    Improved wavefunction reuse through dual PAW basis 

Occupation numbers: # Zero width 

Eigensolver
   Davidson(niter=2) 

Densities:
  Coarse grid: 18*18*21 grid
  Fine grid: 36*36*42 grid
  Total Charge: 0.000000 

Density mixing:
  Method: separate
  Backend: pulay
  Linear mixing parameter: 0.05
  old densities: 5
  Damping of long wavelength oscillations: 50 

Hamiltonian:
  XC and Coulomb potentials evaluated on a 36*36*42 grid
  Using the PBE Exchange-Correlation functional
  External potential:
    NoExternalPotential
 

XC parameters: PBE with 2 nearest neighbor stencil

Memory estimate:
  Process memory now: 1825.64 MiB
  Calculator: 4.16 MiB
    Density: 3.01 MiB
      Arrays: 1.35 MiB
      Localized functions: 1.14 MiB
      Mixer: 0.52 MiB
    Hamiltonian: 0.91 MiB
      Arrays: 0.88 MiB
      XC: 0.00 MiB
      Poisson: 0.00 MiB
      vbar: 0.02 MiB
    Wavefunctions: 0.24 MiB
      Arrays psit_nG: 0.02 MiB
      Eigensolver: 0.06 MiB
      Projections: 0.00 MiB
      Projectors: 0.03 MiB
      PW-descriptor: 0.14 MiB

Total number of cores used: 1

Number of atoms: 2
Number of atomic orbitals: 2
Number of bands in calculation: 2
Number of valence electrons: 2
Bands to converge: occupied

... initialized

Initializing position-dependent things.

Density initialized from atomic densities
Creating initial wave functions:
  2 bands from LCAO basis set

   .---------.  
  /|         |  
 * |         |  
 | |         |  
 | |   H     |  
 | |         |  
 | .---------.  
 |/         /   
 *---------*    

Positions:
   0 H      2.000000    2.000000    2.737166    ( 0.0000,  0.0000,  0.0000)
   1 H      2.000000    2.000000    2.000000    ( 0.0000,  0.0000,  0.0000)

Unit cell:
           periodic     x           y           z      points  spacing
  1. axis:    no     4.000000    0.000000    0.000000    18     0.2222
  2. axis:    no     0.000000    4.000000    0.000000    18     0.2222
  3. axis:    no     0.000000    0.000000    4.737166    21     0.2256

  Lengths:   4.000000   4.000000   4.737166
  Angles:   90.000000  90.000000  90.000000

Effective grid spacing dv^(1/3) = 0.2233

     iter     time        total  log10-change:
                         energy   eigst   dens
iter:   1 22:50:26    -7.441080
iter:   2 22:50:26    -7.429658   -0.70  -0.47
iter:   3 22:50:26    -8.339455   -0.92  -0.47
iter:   4 22:50:26    -6.975153   -0.27  -0.20
iter:   5 22:50:26    -6.984935   -1.80  -1.45
iter:   6 22:50:26    -6.995110   -2.70  -1.23
iter:   7 22:50:26    -6.972040   -2.24  -1.11
iter:   8 22:50:27    -6.972281   -4.25  -1.59
iter:   9 22:50:27    -6.971357c  -4.25  -1.59
iter:  10 22:50:27    -6.969463   -3.04  -1.67
iter:  11 22:50:27    -6.969464   -4.75  -2.93
iter:  12 22:50:27    -6.969464c  -6.30  -3.65
iter:  13 22:50:27    -6.969464c  -8.02c -3.88
iter:  14 22:50:27    -6.969464c  -9.00c -3.97
iter:  15 22:50:27    -6.969464c  -7.90c -3.99
iter:  16 22:50:27    -6.969464c  -8.08c -4.33c

Converged after 16 iterations.

Dipole moment: (0.000000, 0.000000, -0.000000) |e|*Ang

Energy contributions relative to reference atoms: (reference = -24.980324)

Kinetic:         +4.801631
Potential:       -7.154678
External:        +0.000000
XC:              -4.610892
Entropy (-ST):   +0.000000
Local:           -0.005525
SIC:             +0.000000
--------------------------
Free energy:     -6.969464
Extrapolated:    -6.969464

 Band  Eigenvalues  Occupancy
    0    -10.45288    2.00000
    1      1.98513    0.00000

Fermi level: -4.23388

Gap: 12.438 eV
Transition (v -> c):
  (s=0, k=0, n=0, [[0.00, 0.00, 0.00]]) -> (s=0, k=0, n=1, [[0.00, 0.00, 0.00]])
No difference between direct/indirect transitions
System changes: cell, initial_magmoms, positions, numbers 

Initialize ...

species:
  O:
    name: Oxygen
    id: 32ecd46bf208036f09c70b0ec9a88b78
    Z: 8.0
    valence: 6
    core: 2
    charge: 0.0
    file: /home/gigavolt/Projects/gpaw-setups-24.11.0/O.PBE.gz
    compensation charges: {type: gauss,
                           rc: 0.21,
                           lmax: 2}
    cutoffs: {filter: 1.17,
              core: 0.83}
    projectors:
      #              energy  rcut
      - 2s(2.00)   -23.961   0.688
      - 2p(4.00)    -9.029   0.598
      -  s           3.251   0.688
      -  p          18.182   0.598
      -  d           0.000   0.619
  
    # Using partial waves for O as LCAO basis

Reference energy: -4081.704602  # eV

Spin-polarized calculation.
Magnetic moment: 2.000000

Convergence criteria:
 Maximum [total energy] change in last 3 cyles: 0.0005 eV / valence electron
 Maximum integral of absolute [dens]ity change: 0.0001 electrons / valence electron
 Maximum integral of absolute [eigenst]ate change: 4e-08 eV^2 / valence electron
 Maximum number of scf [iter]ations: 333
 (Square brackets indicate name in SCF output, whereas a 'c' in
 the SCF output indicates the quantity has converged.)

Symmetries present (total): 16

  ( 1  0  0)  ( 1  0  0)  ( 1  0  0)  ( 1  0  0)  ( 0  1  0)  ( 0  1  0)
  ( 0  1  0)  ( 0  1  0)  ( 0 -1  0)  ( 0 -1  0)  ( 1  0  0)  ( 1  0  0)
  ( 0  0  1)  ( 0  0 -1)  ( 0  0  1)  ( 0  0 -1)  ( 0  0  1)  ( 0  0 -1)

  ( 0  1  0)  ( 0  1  0)  ( 0 -1  0)  ( 0 -1  0)  ( 0 -1  0)  ( 0 -1  0)
  (-1  0  0)  (-1  0  0)  ( 1  0  0)  ( 1  0  0)  (-1  0  0)  (-1  0  0)
  ( 0  0  1)  ( 0  0 -1)  ( 0  0  1)  ( 0  0 -1)  ( 0  0  1)  ( 0  0 -1)

  (-1  0  0)  (-1  0  0)  (-1  0  0)  (-1  0  0)
  ( 0  1  0)  ( 0  1  0)  ( 0 -1  0)  ( 0 -1  0)
  ( 0  0  1)  ( 0  0 -1)  ( 0  0  1)  ( 0  0 -1)

1 k-point (Gamma)
1 k-point in the irreducible part of the Brillouin zone
       k-points in crystal coordinates                weights
   0:     0.00000000    0.00000000    0.00000000          1/1

Wave functions: Plane wave expansion
  Cutoff energy: 340.000 eV
  Number of coefficients: 1175 (reduced to 588)
  Pulay-stress correction: 0.000000 eV/Ang^3 (de/decut=0.000000)
  Using Numpy's FFT
  ScaLapack parameters: grid=1x1, blocksize=None
  Wavefunction extrapolation:
    Improved wavefunction reuse through dual PAW basis 

Occupation numbers: # Zero width 

Eigensolver
   Davidson(niter=2) 

Densities:
  Coarse grid: 18*18*24 grid
  Fine grid: 36*36*48 grid
  Total Charge: 0.000000 

Density mixing:
  Method: difference
  Backend: pulay
  Linear mixing parameter: 0.05
  old densities: 5
  Damping of long wavelength oscillations: 50 

Hamiltonian:
  XC and Coulomb potentials evaluated on a 36*36*48 grid
  Using the PBE Exchange-Correlation functional
  External potential:
    NoExternalPotential
 

XC parameters: PBE with 2 nearest neighbor stencil

Memory estimate:
  Process memory now: 1825.64 MiB
  Calculator: 6.23 MiB
    Density: 4.16 MiB
      Arrays: 2.08 MiB
      Localized functions: 1.26 MiB
      Mixer: 0.83 MiB
    Hamiltonian: 1.57 MiB
      Arrays: 1.54 MiB
      XC: 0.00 MiB
      Poisson: 0.00 MiB
      vbar: 0.03 MiB
    Wavefunctions: 0.50 MiB
      Arrays psit_nG: 0.14 MiB
      Eigensolver: 0.12 MiB
      Projections: 0.00 MiB
      Projectors: 0.06 MiB
      PW-descriptor: 0.16 MiB

Total number of cores used: 1

Number of atoms: 2
Number of atomic orbitals: 8
Number of bands in calculation: 8
Number of valence electrons: 12
Bands to converge: occupied

... initialized

Initializing position-dependent things.

Density initialized from atomic densities
Creating initial wave functions:
  8 bands from LCAO basis set

   .---------.  
  /|         |  
 * |         |  
 | |   O     |  
 | |         |  
 | |   O     |  
 | .---------.  
 |/         /   
 *---------*    

Positions:
   0 O      2.000000    2.000000    3.245956    ( 0.0000,  0.0000,  1.0000)
   1 O      2.000000    2.000000    2.000000    ( 0.0000,  0.0000,  1.0000)

Unit cell:
           periodic     x           y           z      points  spacing
  1. axis:    no     4.000000    0.000000    0.000000    18     0.2222
  2. axis:    no     0.000000    4.000000    0.000000    18     0.2222
  3. axis:    no     0.000000    0.000000    5.245956    24     0.2186

  Lengths:   4.000000   4.000000   5.245956
  Angles:   90.000000  90.000000  90.000000

Effective grid spacing dv^(1/3) = 0.2210

     iter     time        total  log10-change:  magmom
                         energy   eigst   dens
iter:   1 22:50:27    -1.239008                   +1.9997
iter:   2 22:50:27    -1.536886   -1.29  -1.13    +1.9999
iter:   3 22:50:28    -1.417463   -1.61  -1.16    +2.0000
iter:   4 22:50:28    -1.443270   -1.83  -1.42    +2.0000
iter:   5 22:50:28    -1.417814   -2.07  -1.67    +2.0000
iter:   6 22:50:28    -1.411756   -3.17  -2.12    +2.0000
iter:   7 22:50:28    -1.413030   -3.75  -2.57    +2.0000
iter:   8 22:50:28    -1.411849c  -3.42  -2.36    +2.0000
iter:   9 22:50:28    -1.411620c  -4.60  -2.79    +2.0000
iter:  10 22:50:29    -1.411627c  -6.14  -3.20    +2.0000
iter:  11 22:50:29    -1.411629c  -7.34  -3.22    +2.0000
iter:  12 22:50:29    -1.411634c  -6.47  -3.23    +2.0000
iter:  13 22:50:29    -1.411625c  -6.18  -3.19    +2.0000
iter:  14 22:50:29    -1.411621c  -5.52  -3.39    +2.0000
iter:  15 22:50:29    -1.411619c  -7.03  -3.55    +2.0000
iter:  16 22:50:29    -1.411633c  -5.42  -3.57    +2.0000
iter:  17 22:50:29    -1.411618c  -5.81  -3.43    +2.0000
iter:  18 22:50:29    -1.411618c  -6.69  -4.53c   +2.0000
iter:  19 22:50:30    -1.411618c  -7.94c -4.75c   +2.0000

Converged after 19 iterations.

Dipole moment: (0.000000, 0.000000, 0.000000) |e|*Ang

Total magnetic moment: (0.000000, 0.000000, 2.000000)
Local magnetic moments:
   0 O  ( 0.000000,  0.000000,  0.605654)
   1 O  ( 0.000000,  0.000000,  0.605654)

Energy contributions relative to reference atoms: (reference = -4081.704602)

Kinetic:        -24.354695
Potential:      +29.621744
External:        +0.000000
XC:              -6.497453
Entropy (-ST):   +0.000000
Local:           -0.181214
SIC:             +0.000000
--------------------------
Free energy:     -1.411618
Extrapolated:    -1.411618

Spin contamination: 0.021285 electrons
                   Up                     Down
 Band  Eigenvalues  Occupancy  Eigenvalues  Occupancy
    0    -30.68509    1.00000    -29.45196    1.00000
    1    -19.46911    1.00000    -17.65401    1.00000
    2    -11.32664    1.00000    -10.44497    1.00000
    3    -10.84560    1.00000     -9.02997    1.00000
    4    -10.84560    1.00000     -9.02997    1.00000
    5     -4.40223    1.00000     -2.16558    0.00000
    6     -4.40223    1.00000     -2.16558    0.00000
    7      4.60323    0.00000      5.32935    0.00000

Fermi level: -3.28391

Gap: 2.237 eV
Transition (v -> c):
  (s=0, k=0, n=6, [[0.00, 0.00, 0.00]]) -> (s=1, k=0, n=5, [[0.00, 0.00, 0.00]])
No difference between direct/indirect transitions
                                                                                                                                                                                                                                                                                                                                                                                                                                                                                                                                                                                                                                                                                                                                                                                                                                                                                                                                                                                                                                                                                                                                                                                                                                                                                                                                                                                                                                                                                                                                                                                                                                                                                                                          Timing:                              incl.     excl.
-----------------------------------------------------------
Hamiltonian:                         0.700     0.006   0.0% |
 Atomic:                             0.070     0.001   0.0% |
  XC Correction:                     0.069     0.069   0.2% |
 Calculate atomic Hamiltonians:      0.026     0.026   0.1% |
 Communicate:                        0.000     0.000   0.0% |
 Initialize Hamiltonian:             0.002     0.002   0.0% |
 Poisson:                            0.006     0.006   0.0% |
 XC 3D grid:                         0.592     0.592   1.5% ||
LCAO initialization:                 0.050     0.015   0.0% |
 LCAO eigensolver:                   0.005     0.000   0.0% |
  Calculate projections:             0.000     0.000   0.0% |
  DenseAtomicCorrection:             0.000     0.000   0.0% |
  Distribute overlap matrix:         0.000     0.000   0.0% |
  Orbital Layouts:                   0.000     0.000   0.0% |
  Potential matrix:                  0.004     0.004   0.0% |
 LCAO to grid:                       0.021     0.021   0.1% |
 Set positions (LCAO WFS):           0.009     0.001   0.0% |
  Basic WFS set positions:           0.001     0.001   0.0% |
  Basis functions set positions:     0.000     0.000   0.0% |
  P tci:                             0.003     0.003   0.0% |
  ST tci:                            0.001     0.001   0.0% |
  mktci:                             0.003     0.003   0.0% |
PWDescriptor:                        0.008     0.008   0.0% |
SCF-cycle:                          20.395     0.016   0.0% |
 Davidson:                           3.012     0.388   1.0% |
  Apply H:                           0.560     0.553   1.4% ||
   HMM T:                            0.007     0.007   0.0% |
  Subspace diag:                     0.641     0.003   0.0% |
   calc_h_matrix:                    0.598     0.028   0.1% |
    Apply H:                         0.570     0.561   1.4% ||
     HMM T:                          0.008     0.008   0.0% |
   diagonalize:                      0.006     0.006   0.0% |
   rotate_psi:                       0.034     0.034   0.1% |
  calc. matrices:                    1.348     0.244   0.6% |
   Apply H:                          1.105     1.090   2.7% ||
    HMM T:                           0.015     0.015   0.0% |
  diagonalize:                       0.012     0.012   0.0% |
  rotate_psi:                        0.063     0.063   0.2% |
 Density:                            6.754     0.001   0.0% |
  Atomic density matrices:           0.019     0.019   0.0% |
  Mix:                               5.717     5.717  14.2% |-----|
  Multipole moments:                 0.003     0.003   0.0% |
  Pseudo density:                    1.014     0.310   0.8% |
   Symmetrize density:               0.705     0.705   1.8% ||
 Hamiltonian:                       10.607     0.105   0.3% |
  Atomic:                            1.076     0.014   0.0% |
   XC Correction:                    1.062     1.062   2.6% ||
  Calculate atomic Hamiltonians:     0.400     0.400   1.0% |
  Communicate:                       0.000     0.000   0.0% |
  Poisson:                           0.081     0.081   0.2% |
  XC 3D grid:                        8.944     8.944  22.3% |--------|
 Orthonormalize:                     0.007     0.000   0.0% |
  calc_s_matrix:                     0.001     0.001   0.0% |
  inverse-cholesky:                  0.000     0.000   0.0% |
  projections:                       0.005     0.005   0.0% |
  rotate_psi_s:                      0.001     0.001   0.0% |
Set symmetry:                        0.005     0.005   0.0% |
Other:                              18.977    18.977  47.3% |------------------|
-----------------------------------------------------------
Total:                                        40.135 100.0%

Memory usage: 1.78 GiB
Date: Fri Dec 27 22:50:25 2024
