
  ___ ___ ___ _ _ _  
 |   |   |_  | | | | 
 | | | | | . | | | | 
 |__ |  _|___|_____|  24.7.0b1
 |___|_|             

User:   gigavolt@ideapad-gaming
Date:   Fri Dec 27 22:17:32 2024
Arch:   x86_64
Pid:    6135
CWD:    /home/gigavolt/Projects/deepchem/examples/tutorials
Python: 3.13.1
gpaw:   /home/gigavolt/miniconda3/envs/dc-gpaw/lib/python3.13/site-packages/gpaw
_gpaw:  /home/gigavolt/miniconda3/envs/dc-gpaw/lib/python3.13/site-packages/
        _gpaw.cpython-313-x86_64-linux-gnu.so
ase:    /home/gigavolt/miniconda3/envs/dc-gpaw/lib/python3.13/site-packages/ase (version 3.23.0)
numpy:  /home/gigavolt/.local/lib/python3.13/site-packages/numpy (version 2.2.1)
scipy:  /home/gigavolt/miniconda3/envs/dc-gpaw/lib/python3.13/site-packages/scipy (version 1.14.1)
libxc:  7.0.0
units:  Angstrom and eV
cores: 1
OpenMP: False
OMP_NUM_THREADS: 1

Input parameters:
  convergence: {bands: -10}
  kpts: [12 12  1]
  mode: {ecut: 400.0,
         name: pw}
  xc: RPBE

System changes: positions, numbers, cell, pbc, initial_charges, initial_magmoms 

Initialize ...

species:
  Pt:
    name: Platinum
    id: f04f522592575c47ad794f6b4a415b4b
    Z: 78.0
    valence: 16
    core: 62
    charge: 0.0
    file: /home/gigavolt/Projects/gpaw-setups-24.11.0/Pt.RPBE.gz
    compensation charges: {type: gauss,
                           rc: 0.41,
                           lmax: 2}
    cutoffs: {filter: 2.26,
              core: 2.26}
    projectors:
      #              energy  rcut
      - 6s(1.00)    -5.516   1.307
      - 5p(6.00)   -55.971   1.371
      - 6p(0.00)    -0.856   1.371
      - 5d(9.00)    -6.087   1.307
      -  s          21.695   1.307
      -  d          21.125   1.307
  
    # Using partial waves for Pt as LCAO basis

  C:
    name: Carbon
    id: 5e1162da8ccece2d28d8b78a977ec463
    Z: 6.0
    valence: 4
    core: 2
    charge: 0.0
    file: /home/gigavolt/Projects/gpaw-setups-24.11.0/C.RPBE.gz
    compensation charges: {type: gauss,
                           rc: 0.20,
                           lmax: 2}
    cutoffs: {filter: 1.14,
              core: 1.14}
    projectors:
      #              energy  rcut
      - 2s(2.00)   -13.815   0.635
      - 2p(2.00)    -5.254   0.635
      -  s          13.396   0.635
      -  p          21.957   0.635
      -  d           0.000   0.635
  
    # Using partial waves for C as LCAO basis

  O:
    name: Oxygen
    id: 08071ca1eed670e7821b24b7eb4d558c
    Z: 8.0
    valence: 6
    core: 2
    charge: 0.0
    file: /home/gigavolt/Projects/gpaw-setups-24.11.0/O.RPBE.gz
    compensation charges: {type: gauss,
                           rc: 0.21,
                           lmax: 2}
    cutoffs: {filter: 1.17,
              core: 0.83}
    projectors:
      #              energy  rcut
      - 2s(2.00)   -24.041   0.688
      - 2p(4.00)    -8.984   0.598
      -  s           3.170   0.688
      -  p          18.228   0.598
      -  d           0.000   0.619
  
    # Using partial waves for O as LCAO basis

Reference energy: -1504241.524866  # eV

Spin-paired calculation

Convergence criteria:
 Maximum [total energy] change in last 3 cyles: 0.0005 eV / valence electron
 Maximum integral of absolute [dens]ity change: 0.0001 electrons / valence electron
 Maximum integral of absolute [eigenst]ate change: 4e-08 eV^2 / valence electron
 Maximum number of scf [iter]ations: 333
 (Square brackets indicate name in SCF output, whereas a 'c' in
 the SCF output indicates the quantity has converged.)

Symmetries present (total): 6

  ( 1  0  0)  ( 1 -1  0)  ( 0  1  0)  ( 0 -1  0)  (-1  1  0)  (-1  0  0)
  ( 0  1  0)  ( 0 -1  0)  ( 1  0  0)  ( 1 -1  0)  (-1  0  0)  (-1  1  0)
  ( 0  0  1)  ( 0  0  1)  ( 0  0  1)  ( 0  0  1)  ( 0  0  1)  ( 0  0  1)
Note: your k-points are not as symmetric as your crystal!

144 k-points: 12 x 12 x 1 Monkhorst-Pack grid
42 k-points in the irreducible part of the Brillouin zone
       k-points in crystal coordinates                weights
   0:     0.04166667   -0.04166667    0.00000000          2/144
   1:     0.04166667    0.04166667    0.00000000          2/144
   2:     0.12500000   -0.12500000    0.00000000          2/144
   3:     0.12500000   -0.04166667    0.00000000          4/144
   4:     0.12500000    0.04166667    0.00000000          4/144
   5:     0.12500000    0.12500000    0.00000000          2/144
   6:     0.20833333   -0.20833333    0.00000000          2/144
   7:     0.20833333   -0.12500000    0.00000000          4/144
   8:     0.20833333   -0.04166667    0.00000000          4/144
   9:     0.20833333    0.04166667    0.00000000          4/144
          ...
  41:     0.45833333    0.45833333    0.00000000          2/144

Wave functions: Plane wave expansion
  Cutoff energy: 400.000 eV
  Number of coefficients (min, max): 1870, 1927
  Pulay-stress correction: 0.000000 eV/Ang^3 (de/decut=0.000000)
  Using Numpy's FFT
  ScaLapack parameters: grid=1x1, blocksize=None
  Wavefunction extrapolation:
    Improved wavefunction reuse through dual PAW basis 

Occupation numbers: Fermi-Dirac:
  width: 0.1000  # eV
 

Eigensolver
   Davidson(niter=2) 

Densities:
  Coarse grid: 14*14*75 grid
  Fine grid: 28*28*150 grid
  Total Charge: 0.000000 

Density mixing:
  Method: separate
  Backend: pulay
  Linear mixing parameter: 0.05
  old densities: 5
  Damping of long wavelength oscillations: 50 

Hamiltonian:
  XC and Coulomb potentials evaluated on a 28*28*150 grid
  Using the RPBE Exchange-Correlation functional
  External potential:
    NoExternalPotential
 

XC parameters: RPBE with 2 nearest neighbor stencil

Memory estimate:
  Process memory now: 153.13 MiB
  Calculator: 77.73 MiB
    Density: 7.06 MiB
      Arrays: 2.92 MiB
      Localized functions: 3.03 MiB
      Mixer: 1.12 MiB
    Hamiltonian: 1.99 MiB
      Arrays: 1.91 MiB
      XC: 0.00 MiB
      Poisson: 0.00 MiB
      vbar: 0.08 MiB
    Wavefunctions: 68.67 MiB
      Arrays psit_nG: 48.16 MiB
      Eigensolver: 1.53 MiB
      Projections: 2.00 MiB
      Projectors: 15.19 MiB
      PW-descriptor: 1.80 MiB

Total number of cores used: 1

Number of atoms: 5
Number of atomic orbitals: 44
Number of bands in calculation: 39
Number of valence electrons: 58
Bands to converge: 29

... initialized

Initializing position-dependent things.

Density initialized from atomic densities
Creating initial wave functions:
  39 bands from LCAO basis set

                    
                    
                    
                    
       O            
                    
       C            
                    
       Pt           
                    
        Pt          
                    
                    
           Pt       
                    
                    
                    
                    

Positions:
   0 Pt     1.385929    0.800167    4.000000    ( 0.0000,  0.0000,  0.0000)
   1 Pt    -0.000000    1.600333    6.263213    ( 0.0000,  0.0000,  0.0000)
   2 Pt     0.000000    0.000000    8.526426    ( 0.0000,  0.0000,  0.0000)
   3 C      0.000000    0.000000   10.526426    ( 0.0000,  0.0000,  0.0000)
   4 O      0.000000    0.000000   11.676426    ( 0.0000,  0.0000,  0.0000)

Unit cell:
           periodic     x           y           z      points  spacing
  1. axis:    yes    2.771859    0.000000    0.000000    14     0.1715
  2. axis:    yes    1.385929    2.400500    0.000000    14     0.1715
  3. axis:    no     0.000000    0.000000   15.676426    75     0.2090

  Lengths:   2.771859   2.771859  15.676426
  Angles:   90.000000  90.000000  60.000000

Effective grid spacing dv^(1/3) = 0.1922

     iter     time        total  log10-change:
                         energy   eigst   dens
iter:   1 22:17:47   -31.145476   +0.31
iter:   2 22:17:57   -30.511795   -1.17  -1.30
iter:   3 22:18:09   -30.266134   -2.10  -1.34
iter:   4 22:18:19   -29.958674   -2.07  -1.38
iter:   5 22:18:29   -29.385395   -1.78  -1.44
iter:   6 22:18:39   -29.253903   -2.22  -1.76
iter:   7 22:18:49   -29.267859   -2.82  -2.00
iter:   8 22:19:00   -29.241104c  -3.77  -2.01
iter:   9 22:19:10   -29.197163   -2.42  -2.08
iter:  10 22:19:20   -29.190866   -3.72  -2.53
iter:  11 22:19:30   -29.192169c  -4.16  -2.61
iter:  12 22:19:39   -29.188977c  -3.91  -2.66
iter:  13 22:19:49   -29.189106c  -4.74  -2.87
iter:  14 22:19:59   -29.189123c  -5.28  -2.97
iter:  15 22:20:09   -29.189319c  -4.70  -3.03
iter:  16 22:20:18   -29.189081c  -5.49  -3.31
iter:  17 22:20:28   -29.189105c  -5.65  -3.33
iter:  18 22:20:37   -29.189069c  -5.69  -3.47
iter:  19 22:20:47   -29.189225c  -6.08  -3.64
iter:  20 22:20:56   -29.189193c  -7.05  -3.80
iter:  21 22:21:08   -29.189177c  -6.12  -3.86
iter:  22 22:21:24   -29.189184c  -6.68  -4.17c
iter:  23 22:21:41   -29.189221c  -7.34  -4.37c
iter:  24 22:21:51   -29.189215c  -7.50c -4.44c

Converged after 24 iterations.

Dipole moment: (-0.022874, -0.013206, 0.049176) |e|*Ang

Energy contributions relative to reference atoms: (reference = -1504241.524866)

Kinetic:         -5.612714
Potential:       -0.204388
External:        +0.000000
XC:             -21.715725
Entropy (-ST):   -0.144112
Local:           -1.584332
SIC:             +0.000000
--------------------------
Free energy:    -29.261271
Extrapolated:   -29.189215

Showing only first 2 kpts
 Kpt  Band  Eigenvalues  Occupancy
  0    27      3.01469    2.00000
  0    28      3.13935    1.99999
  0    29      3.53242    1.99947
  0    30      4.12665    1.81681

  1    27      3.08136    1.99999
  1    28      3.10458    1.99999
  1    29      3.74654    1.99550
  1    30      4.12083    1.82625


Fermi level: 4.35607

No gap
No difference between direct/indirect transitions
Writing to top.gpw (mode='all')

Timing:                              incl.     excl.
-----------------------------------------------------------
Hamiltonian:                         0.133     0.000   0.0% |
 Atomic:                             0.099     0.001   0.0% |
  XC Correction:                     0.098     0.098   0.0% |
 Calculate atomic Hamiltonians:      0.007     0.007   0.0% |
 Communicate:                        0.000     0.000   0.0% |
 Initialize Hamiltonian:             0.000     0.000   0.0% |
 Poisson:                            0.000     0.000   0.0% |
 XC 3D grid:                         0.026     0.026   0.0% |
LCAO initialization:                 5.258     0.080   0.0% |
 LCAO eigensolver:                   1.290     0.001   0.0% |
  Calculate projections:             0.015     0.015   0.0% |
  DenseAtomicCorrection:             0.028     0.028   0.0% |
  Distribute overlap matrix:         0.003     0.003   0.0% |
  Orbital Layouts:                   0.683     0.683   0.2% |
  Potential matrix:                  0.239     0.239   0.1% |
  Sum over cells:                    0.322     0.322   0.1% |
 LCAO to grid:                       3.515     3.515   1.0% |
 Set positions (LCAO WFS):           0.373     0.057   0.0% |
  Basic WFS set positions:           0.000     0.000   0.0% |
  Basis functions set positions:     0.000     0.000   0.0% |
  P tci:                             0.186     0.186   0.1% |
  ST tci:                            0.120     0.120   0.0% |
  mktci:                             0.009     0.009   0.0% |
PWDescriptor:                        0.015     0.015   0.0% |
SCF-cycle:                         253.836     0.201   0.1% |
 Davidson:                         239.743    56.825  15.7% |-----|
  Apply H:                          27.176    26.793   7.4% |--|
   HMM T:                            0.383     0.383   0.1% |
  Subspace diag:                    45.572     0.078   0.0% |
   calc_h_matrix:                   32.680     5.778   1.6% ||
    Apply H:                        26.902    26.507   7.3% |--|
     HMM T:                          0.395     0.395   0.1% |
   diagonalize:                      0.441     0.441   0.1% |
   rotate_psi:                      12.373    12.373   3.4% ||
  calc. matrices:                   58.563    21.759   6.0% |-|
   Apply H:                         36.805    36.206  10.0% |---|
    HMM T:                           0.599     0.599   0.2% |
  diagonalize:                      26.684    26.684   7.4% |--|
  rotate_psi:                       24.924    24.924   6.9% |--|
 Density:                            9.787     0.000   0.0% |
  Atomic density matrices:           0.070     0.070   0.0% |
  Mix:                               1.309     1.309   0.4% |
  Multipole moments:                 0.002     0.002   0.0% |
  Pseudo density:                    8.406     8.384   2.3% ||
   Symmetrize density:               0.022     0.022   0.0% |
 Hamiltonian:                        3.155     0.012   0.0% |
  Atomic:                            2.358     0.013   0.0% |
   XC Correction:                    2.345     2.345   0.6% |
  Calculate atomic Hamiltonians:     0.101     0.101   0.0% |
  Communicate:                       0.000     0.000   0.0% |
  Poisson:                           0.005     0.005   0.0% |
  XC 3D grid:                        0.678     0.678   0.2% |
 Orthonormalize:                     0.950     0.003   0.0% |
  calc_s_matrix:                     0.137     0.137   0.0% |
  inverse-cholesky:                  0.006     0.006   0.0% |
  projections:                       0.541     0.541   0.1% |
  rotate_psi_s:                      0.263     0.263   0.1% |
Set symmetry:                        0.004     0.004   0.0% |
Other:                             102.741   102.741  28.4% |----------|
-----------------------------------------------------------
Total:                                       361.986 100.0%

Memory usage: 317.61 MiB
Date: Fri Dec 27 22:23:34 2024
